version 3
run General-0-20220725-10:03:52-16715
attr configname General
attr datetime 20220725-10:03:52
attr datetimef 20220725-100352
attr experiment General
attr inifile omnetpp.ini
attr iterationvars ""
attr iterationvarsd ""
attr iterationvarsf ""
attr measurement ""
attr network Network
attr processid 16715
attr repetition 0
attr replication #0
attr resultdir results
attr runnumber 0
attr seedset 0
config network Network
config sim-time-limit 200s
config Network.node[0].app.interArrivalTime exponential(1)
config Network.node[0].app.packetByteSize 125000
config Network.node[0].app.destination 5
config Network.node[2].app.interArrivalTime exponential(1)
config Network.node[2].app.packetByteSize 125000
config Network.node[2].app.destination 5
config NetworkStar.node[0].app.interArrivalTime exponential(1)
config NetworkStar.node[0].app.packetByteSize 125000
config NetworkStar.node[0].app.destination 50

vector 0 Network.node[0].lnk[0] "Buffer Size" ETV
vector 1 Network.node[0].lnk[1] "Buffer Size" ETV
vector 2 Network.node[1].lnk[0] "Buffer Size" ETV
vector 3 Network.node[1].lnk[1] "Buffer Size" ETV
vector 4 Network.node[2].lnk[0] "Buffer Size" ETV
vector 5 Network.node[2].lnk[1] "Buffer Size" ETV
vector 6 Network.node[3].lnk[0] "Buffer Size" ETV
vector 7 Network.node[3].lnk[1] "Buffer Size" ETV
vector 8 Network.node[4].lnk[0] "Buffer Size" ETV
vector 9 Network.node[4].lnk[1] "Buffer Size" ETV
vector 10 Network.node[5].lnk[0] "Buffer Size" ETV
vector 11 Network.node[5].lnk[1] "Buffer Size" ETV
vector 12 Network.node[6].lnk[0] "Buffer Size" ETV
vector 13 Network.node[6].lnk[1] "Buffer Size" ETV
vector 14 Network.node[7].lnk[0] "Buffer Size" ETV
vector 15 Network.node[7].lnk[1] "Buffer Size" ETV
vector 16 Network.node[0].app Delay_destine_node ETV
vector 17 Network.node[2].app Delay_destine_node ETV
vector 18 Network.node[0].net packetHops ETV
vector 19 Network.node[0].net Delay_per_node ETV
vector 20 Network.node[2].net packetHops ETV
vector 21 Network.node[2].net Delay_per_node ETV
0	1	0	1
0	17	0	0
0	96	0.000164	1
0	112	0.000164	0
0	161	0.000328	1
0	177	0.000328	0
0	256	0.000492	1
0	272	0.000492	0
0	321	0.000656	1
0	337	0.000656	0
0	403	0.000756	1
0	419	0.000756	0
0	485	0.000856	1
0	501	0.000856	0
0	567	0.000956	1
0	583	0.000956	0
0	650	0.001056	1
0	661	0.001056	0
0	691	0.899616388484	1
0	692	0.899616388484	0
0	695	1.822839519955	1
0	700	1.899616388484	0
1	2	0	1
1	18	0	0
1	83	0.000164	1
1	99	0.000164	0
1	162	0.000328	1
1	178	0.000328	0
1	243	0.000492	1
1	259	0.000492	0
1	322	0.000656	1
1	338	0.000656	0
1	416	0.000756	1
1	432	0.000756	0
1	494	0.000856	1
1	510	0.000856	0
1	572	0.000956	1
1	588	0.000956	0
2	3	0	1
2	19	0	0
2	82	0.000164	1
2	98	0.000164	0
2	163	0.000328	1
2	179	0.000328	0
2	242	0.000492	1
2	258	0.000492	0
2	323	0.000656	1
2	339	0.000656	0
2	405	0.000756	1
2	421	0.000756	0
2	487	0.000856	1
2	503	0.000856	0
2	569	0.000956	1
2	585	0.000956	0
2	652	0.001056	1
2	662	0.001056	0
3	4	0	1
3	20	0	0
3	85	0.000164	1
3	101	0.000164	0
3	164	0.000328	1
3	180	0.000328	0
3	245	0.000492	1
3	261	0.000492	0
3	324	0.000656	1
3	340	0.000656	0
3	402	0.000756	1
3	418	0.000756	0
3	496	0.000856	1
3	512	0.000856	0
3	574	0.000956	1
3	590	0.000956	0
4	5	0	1
4	21	0	0
4	84	0.000164	1
4	100	0.000164	0
4	165	0.000328	1
4	181	0.000328	0
4	244	0.000492	1
4	260	0.000492	0
4	325	0.000656	1
4	341	0.000656	0
4	407	0.000756	1
4	423	0.000756	0
4	489	0.000856	1
4	505	0.000856	0
4	571	0.000956	1
4	587	0.000956	0
4	654	0.001056	1
4	663	0.001056	0
5	6	0	1
5	22	0	0
5	87	0.000164	1
5	103	0.000164	0
5	166	0.000328	1
5	182	0.000328	0
5	247	0.000492	1
5	263	0.000492	0
5	326	0.000656	1
5	342	0.000656	0
5	404	0.000756	1
5	420	0.000756	0
5	482	0.000856	1
5	498	0.000856	0
5	576	0.000956	1
5	592	0.000956	0
5	698	1.860660212075	1
5	699	1.860660212075	0
6	7	0	1
6	23	0	0
6	86	0.000164	1
6	102	0.000164	0
6	167	0.000328	1
6	183	0.000328	0
6	246	0.000492	1
6	262	0.000492	0
6	327	0.000656	1
6	343	0.000656	0
6	409	0.000756	1
6	425	0.000756	0
6	491	0.000856	1
6	507	0.000856	0
6	573	0.000956	1
6	589	0.000956	0
6	656	0.001056	1
6	664	0.001056	0
7	8	0	1
7	24	0	0
7	89	0.000164	1
7	105	0.000164	0
7	168	0.000328	1
7	184	0.000328	0
7	249	0.000492	1
7	265	0.000492	0
7	328	0.000656	1
7	344	0.000656	0
7	406	0.000756	1
7	422	0.000756	0
7	484	0.000856	1
7	500	0.000856	0
7	562	0.000956	1
7	578	0.000956	0
8	9	0	1
8	25	0	0
8	88	0.000164	1
8	104	0.000164	0
8	169	0.000328	1
8	185	0.000328	0
8	248	0.000492	1
8	264	0.000492	0
8	329	0.000656	1
8	345	0.000656	0
8	411	0.000756	1
8	427	0.000756	0
8	493	0.000856	1
8	509	0.000856	0
8	575	0.000956	1
8	591	0.000956	0
8	642	0.001056	1
8	657	0.001056	0
9	10	0	1
9	26	0	0
9	91	0.000164	1
9	107	0.000164	0
9	170	0.000328	1
9	186	0.000328	0
9	251	0.000492	1
9	267	0.000492	0
9	330	0.000656	1
9	346	0.000656	0
9	408	0.000756	1
9	424	0.000756	0
9	486	0.000856	1
9	502	0.000856	0
9	564	0.000956	1
9	580	0.000956	0
10	11	0	1
10	27	0	0
10	90	0.000164	1
10	106	0.000164	0
10	171	0.000328	1
10	187	0.000328	0
10	250	0.000492	1
10	266	0.000492	0
10	331	0.000656	1
10	347	0.000656	0
10	413	0.000756	1
10	429	0.000756	0
10	495	0.000856	1
10	511	0.000856	0
10	561	0.000956	1
10	577	0.000956	0
10	644	0.001056	1
10	658	0.001056	0
11	12	0	1
11	28	0	0
11	93	0.000164	1
11	109	0.000164	0
11	172	0.000328	1
11	188	0.000328	0
11	253	0.000492	1
11	269	0.000492	0
11	332	0.000656	1
11	348	0.000656	0
11	410	0.000756	1
11	426	0.000756	0
11	488	0.000856	1
11	504	0.000856	0
11	566	0.000956	1
11	582	0.000956	0
12	13	0	1
12	29	0	0
12	92	0.000164	1
12	108	0.000164	0
12	173	0.000328	1
12	189	0.000328	0
12	252	0.000492	1
12	268	0.000492	0
12	333	0.000656	1
12	349	0.000656	0
12	415	0.000756	1
12	431	0.000756	0
12	481	0.000856	1
12	497	0.000856	0
12	563	0.000956	1
12	579	0.000956	0
12	646	0.001056	1
12	659	0.001056	0
13	14	0	1
13	30	0	0
13	95	0.000164	1
13	111	0.000164	0
13	174	0.000328	1
13	190	0.000328	0
13	255	0.000492	1
13	271	0.000492	0
13	334	0.000656	1
13	350	0.000656	0
13	412	0.000756	1
13	428	0.000756	0
13	490	0.000856	1
13	506	0.000856	0
13	568	0.000956	1
13	584	0.000956	0
14	15	0	1
14	31	0	0
14	94	0.000164	1
14	110	0.000164	0
14	175	0.000328	1
14	191	0.000328	0
14	254	0.000492	1
14	270	0.000492	0
14	335	0.000656	1
14	351	0.000656	0
14	401	0.000756	1
14	417	0.000756	0
14	483	0.000856	1
14	499	0.000856	0
14	565	0.000956	1
14	581	0.000956	0
14	648	0.001056	1
14	660	0.001056	0
15	16	0	1
15	32	0	0
15	81	0.000164	1
15	97	0.000164	0
15	176	0.000328	1
15	192	0.000328	0
15	241	0.000492	1
15	257	0.000492	0
15	336	0.000656	1
15	352	0.000656	0
15	414	0.000756	1
15	430	0.000756	0
15	492	0.000856	1
15	508	0.000856	0
15	570	0.000956	1
15	586	0.000956	0
16	649	0.001056	0
17	653	0.001056	0
18	690	0.899616388484	0
18	694	1.822839519955	0
19	690	0.899616388484	0
19	694	1.822839519955	0
20	697	1.860660212075	0
21	697	1.860660212075	0
vector 22 Network.node[7].net packetHops ETV
vector 23 Network.node[7].net Delay_per_node ETV
vector 24 Network.node[3].net packetHops ETV
vector 25 Network.node[3].net Delay_per_node ETV
vector 26 Network.node[6].net packetHops ETV
vector 27 Network.node[6].net Delay_per_node ETV
vector 28 Network.node[4].net packetHops ETV
vector 29 Network.node[4].net Delay_per_node ETV
vector 30 Network.node[5].net packetHops ETV
vector 31 Network.node[5].net Delay_per_node ETV
0	725	3.774384855839	1
0	726	3.774384855839	0
0	748	4.325433342509	1
0	753	4.774384855839	0
0	773	5.302439768902	1
0	783	5.774384855839	0
0	795	5.787567932624	1
0	805	6.140727071762	2
0	808	6.199111740855	3
0	819	6.774384855839	2
0	847	7.774384855839	1
5	707	2.647861352057	1
5	708	2.860660212075	0
5	751	4.52682540626	1
5	752	4.52682540626	0
5	781	5.564984706924	1
5	782	5.564984706924	0
5	802	6.140503903807	1
5	814	6.564984706924	0
5	863	8.364028325843	1
5	864	8.364028325843	0
7	711	2.860760212075	1
7	712	2.860760212075	0
7	731	3.860760212075	1
7	732	3.860760212075	0
7	777	5.52692540626	1
7	778	5.52692540626	0
7	817	6.565084706924	1
7	818	6.565084706924	0
7	841	7.565084706924	1
7	842	7.565084706924	0
9	735	3.860860212075	1
9	736	3.860860212075	0
9	762	4.860860212075	1
9	763	4.860860212075	0
9	812	6.52702540626	1
9	813	6.52702540626	0
9	845	7.565184706924	1
9	846	7.565184706924	0
9	869	8.565184706924	1
9	870	8.565184706924	0
12	721	2.899816388484	1
12	722	2.899816388484	0
12	741	3.899816388484	1
12	742	3.899816388484	0
12	791	5.774584855839	1
12	792	5.774584855839	0
12	828	6.774584855839	1
12	829	6.774584855839	0
12	856	7.774584855839	1
12	857	7.774584855839	0
14	703	1.899716388484	1
14	704	1.899716388484	0
14	717	2.899716388484	1
14	718	2.899716388484	0
14	756	4.774484855839	1
14	757	4.774484855839	0
14	787	5.774484855839	1
14	788	5.774484855839	0
14	823	6.774484855839	1
14	824	6.774484855839	0
14	851	7.774484855839	1
14	852	7.774484855839	0
18	724	3.774384855839	0
18	747	4.325433342509	0
18	772	5.302439768902	0
18	794	5.787567932624	0
18	804	6.140727071762	0
18	807	6.199111740855	0
19	724	3.774384855839	0
19	747	4.325433342509	0
19	772	5.302439768902	0
19	794	5.787567932624	0
19	804	6.140727071762	0
19	807	6.199111740855	0
20	706	2.647861352057	0
20	750	4.52682540626	0
20	780	5.564984706924	0
20	801	6.140503903807	0
20	862	8.364028325843	0
21	706	2.647861352057	0
21	750	4.52682540626	0
21	780	5.564984706924	0
21	801	6.140503903807	0
21	862	8.364028325843	0
22	702	1.899716388484	2
22	716	2.899716388484	2
22	755	4.774484855839	2
22	786	5.774484855839	2
22	822	6.774484855839	2
22	850	7.774484855839	2
23	702	1.899716388484	1.0001
23	716	2.899716388484	1.076876868529
23	755	4.774484855839	1.0001
23	786	5.774484855839	1.44905151333
23	822	6.774484855839	1.472045086937
23	850	7.774484855839	1.986916923215
24	710	2.860760212075	2
24	730	3.860760212075	2
24	776	5.52692540626	2
24	816	6.565084706924	2
24	840	7.565084706924	2
25	710	2.860760212075	1.0001
25	730	3.860760212075	1.212898860018
25	776	5.52692540626	1.0001
25	816	6.565084706924	1.0001
25	840	7.565084706924	1.424580803117
26	720	2.899816388484	3
26	740	3.899816388484	3
26	790	5.774584855839	3
26	827	6.774584855839	3
26	855	7.774584855839	3
27	720	2.899816388484	2.0002
27	740	3.899816388484	2.076976868529
27	790	5.774584855839	2.0002
27	827	6.774584855839	2.44915151333
27	855	7.774584855839	2.472145086937
28	734	3.860860212075	3
28	761	4.860860212075	3
28	811	6.52702540626	3
28	844	7.565184706924	3
28	868	8.565184706924	3
29	734	3.860860212075	2.0002
29	761	4.860860212075	2.212998860018
29	811	6.52702540626	2.0002
29	844	7.565184706924	2.0002
29	868	8.565184706924	2.424680803117
30	744	3.899916388484	4
30	765	4.860960212075	4
30	769	4.899916388484	4
30	798	5.860960212075	4
30	831	6.774684855839	4
30	835	7.52712540626	4
30	859	7.774684855839	4
31	744	3.899916388484	3.0003
31	765	4.860960212075	3.0003
31	769	4.899916388484	3.077076868529
31	798	5.860960212075	3.213098860018
31	831	6.774684855839	3.0003
31	835	7.52712540626	3.0003
31	859	7.774684855839	3.44925151333

