version 3
run General-0-20220730-16:02:16-20103
attr configname General
attr datetime 20220730-16:02:16
attr datetimef 20220730-160216
attr experiment General
attr inifile omnetpp.ini
attr iterationvars ""
attr iterationvarsd ""
attr iterationvarsf ""
attr measurement ""
attr network Network
attr processid 20103
attr repetition 0
attr replication #0
attr resultdir results
attr runnumber 0
attr seedset 0
config network Network
config sim-time-limit 200s
config Network.node[0].app.interArrivalTime exponential(1)
config Network.node[0].app.packetByteSize 125000
config Network.node[0].app.destination 5
config Network.node[2].app.interArrivalTime exponential(1)
config Network.node[2].app.packetByteSize 125000
config Network.node[2].app.destination 5
config NetworkStar.node[0].app.interArrivalTime exponential(1)
config NetworkStar.node[0].app.packetByteSize 125000
config NetworkStar.node[0].app.destination 50

vector 0 Network.node[0].lnk[0] "Buffer Size" ETV
vector 1 Network.node[0].lnk[1] "Buffer Size" ETV
vector 2 Network.node[1].lnk[0] "Buffer Size" ETV
vector 3 Network.node[1].lnk[1] "Buffer Size" ETV
vector 4 Network.node[2].lnk[0] "Buffer Size" ETV
vector 5 Network.node[2].lnk[1] "Buffer Size" ETV
vector 6 Network.node[3].lnk[0] "Buffer Size" ETV
vector 7 Network.node[3].lnk[1] "Buffer Size" ETV
vector 8 Network.node[4].lnk[0] "Buffer Size" ETV
vector 9 Network.node[4].lnk[1] "Buffer Size" ETV
vector 10 Network.node[5].lnk[0] "Buffer Size" ETV
vector 11 Network.node[5].lnk[1] "Buffer Size" ETV
vector 12 Network.node[6].lnk[0] "Buffer Size" ETV
vector 13 Network.node[6].lnk[1] "Buffer Size" ETV
vector 14 Network.node[7].lnk[0] "Buffer Size" ETV
vector 15 Network.node[7].lnk[1] "Buffer Size" ETV
vector 16 Network.node[4].app Delay_destine_node ETV
vector 17 Network.node[4].app pkts_received ETV
vector 18 Network.node[5].app Delay_destine_node ETV
vector 19 Network.node[5].app pkts_received ETV
vector 20 Network.node[6].app Delay_destine_node ETV
vector 21 Network.node[6].app pkts_received ETV
vector 22 Network.node[7].app Delay_destine_node ETV
vector 23 Network.node[7].app pkts_received ETV
vector 24 Network.node[1].app Delay_destine_node ETV
vector 25 Network.node[1].app pkts_received ETV
vector 26 Network.node[3].app Delay_destine_node ETV
vector 27 Network.node[3].app pkts_received ETV
vector 28 Network.node[0].net packetHops ETV
vector 29 Network.node[0].net Delay_per_node ETV
vector 30 Network.node[2].net packetHops ETV
vector 31 Network.node[2].net Delay_per_node ETV
vector 32 Network.node[7].net packetHops ETV
vector 33 Network.node[7].net Delay_per_node ETV
vector 34 Network.node[3].net packetHops ETV
vector 35 Network.node[3].net Delay_per_node ETV
vector 36 Network.node[6].net packetHops ETV
vector 37 Network.node[6].net Delay_per_node ETV
vector 38 Network.node[4].net packetHops ETV
vector 39 Network.node[4].net Delay_per_node ETV
vector 40 Network.node[5].net packetHops ETV
vector 41 Network.node[5].net Delay_per_node ETV
0	1	0	1
0	17	0	0
0	96	0.000164	1
0	112	0.000164	0
0	161	0.000328	1
0	177	0.000328	0
0	256	0.000492	1
0	272	0.000492	0
0	321	0.000656	1
0	337	0.000656	0
0	403	0.000756	1
0	419	0.000756	0
0	485	0.000856	1
0	501	0.000856	0
0	567	0.000956	1
0	583	0.000956	0
0	650	0.001056	1
0	661	0.001056	0
0	691	0.899616388484	1
0	692	0.899616388484	0
0	695	1.822839519955	1
0	700	1.899616388484	0
0	725	3.774384855839	1
0	726	3.774384855839	0
0	748	4.325433342509	1
0	753	4.774384855839	0
0	773	5.302439768902	1
0	783	5.774384855839	0
0	795	5.787567932624	1
0	805	6.140727071762	2
0	808	6.199111740855	3
0	819	6.774384855839	2
0	847	7.774384855839	1
0	877	8.774384855839	0
0	901	9.514024020783	1
0	906	9.774384855839	0
0	949	11.082920138406	1
0	950	11.082920138406	0
0	979	11.835594251719	1
0	980	12.082920138406	0
0	1007	12.675027104619	1
0	1012	13.082920138406	0
0	1066	14.483396368894	1
0	1067	14.483396368894	0
0	1070	14.557081724359	1
0	1073	14.968659720602	2
0	1076	15.059820746726	3
1	2	0	1
1	18	0	0
1	83	0.000164	1
1	99	0.000164	0
1	162	0.000328	1
1	178	0.000328	0
1	243	0.000492	1
1	259	0.000492	0
1	322	0.000656	1
1	338	0.000656	0
1	416	0.000756	1
1	432	0.000756	0
1	494	0.000856	1
1	510	0.000856	0
1	572	0.000956	1
1	588	0.000956	0
2	3	0	1
2	19	0	0
2	82	0.000164	1
2	98	0.000164	0
2	163	0.000328	1
2	179	0.000328	0
2	242	0.000492	1
2	258	0.000492	0
2	323	0.000656	1
2	339	0.000656	0
2	405	0.000756	1
2	421	0.000756	0
2	487	0.000856	1
2	503	0.000856	0
2	569	0.000956	1
2	585	0.000956	0
2	652	0.001056	1
2	662	0.001056	0
3	4	0	1
3	20	0	0
3	85	0.000164	1
3	101	0.000164	0
3	164	0.000328	1
3	180	0.000328	0
3	245	0.000492	1
3	261	0.000492	0
3	324	0.000656	1
3	340	0.000656	0
3	402	0.000756	1
3	418	0.000756	0
3	496	0.000856	1
3	512	0.000856	0
3	574	0.000956	1
3	590	0.000956	0
4	5	0	1
4	21	0	0
4	84	0.000164	1
4	100	0.000164	0
4	165	0.000328	1
4	181	0.000328	0
4	244	0.000492	1
4	260	0.000492	0
4	325	0.000656	1
4	341	0.000656	0
4	407	0.000756	1
4	423	0.000756	0
4	489	0.000856	1
4	505	0.000856	0
4	571	0.000956	1
4	587	0.000956	0
4	654	0.001056	1
4	663	0.001056	0
5	6	0	1
5	22	0	0
5	87	0.000164	1
5	103	0.000164	0
5	166	0.000328	1
5	182	0.000328	0
5	247	0.000492	1
5	263	0.000492	0
5	326	0.000656	1
5	342	0.000656	0
5	404	0.000756	1
5	420	0.000756	0
5	482	0.000856	1
5	498	0.000856	0
5	576	0.000956	1
5	592	0.000956	0
5	698	1.860660212075	1
5	699	1.860660212075	0
5	707	2.647861352057	1
5	708	2.860660212075	0
5	751	4.52682540626	1
5	752	4.52682540626	0
5	781	5.564984706924	1
5	782	5.564984706924	0
5	802	6.140503903807	1
5	814	6.564984706924	0
5	863	8.364028325843	1
5	864	8.364028325843	0
5	876	8.682384466685	1
5	893	9.165986571633	2
5	894	9.364028325843	1
5	922	9.815432919884	2
5	923	10.364028325843	1
5	951	11.364028325843	0
5	967	11.487644120209	1
5	987	12.14152668743	2
5	988	12.364028325843	1
5	1004	12.640398696446	2
5	1022	13.364028325843	1
5	1050	14.364028325843	0
6	7	0	1
6	23	0	0
6	86	0.000164	1
6	102	0.000164	0
6	167	0.000328	1
6	183	0.000328	0
6	246	0.000492	1
6	262	0.000492	0
6	327	0.000656	1
6	343	0.000656	0
6	409	0.000756	1
6	425	0.000756	0
6	491	0.000856	1
6	507	0.000856	0
6	573	0.000956	1
6	589	0.000956	0
6	656	0.001056	1
6	664	0.001056	0
7	8	0	1
7	24	0	0
7	89	0.000164	1
7	105	0.000164	0
7	168	0.000328	1
7	184	0.000328	0
7	249	0.000492	1
7	265	0.000492	0
7	328	0.000656	1
7	344	0.000656	0
7	406	0.000756	1
7	422	0.000756	0
7	484	0.000856	1
7	500	0.000856	0
7	562	0.000956	1
7	578	0.000956	0
7	711	2.860760212075	1
7	712	2.860760212075	0
7	731	3.860760212075	1
7	732	3.860760212075	0
7	777	5.52692540626	1
7	778	5.52692540626	0
7	817	6.565084706924	1
7	818	6.565084706924	0
7	841	7.565084706924	1
7	842	7.565084706924	0
7	897	9.364128325843	1
7	898	9.364128325843	0
7	927	10.364128325843	1
7	928	10.364128325843	0
7	955	11.364128325843	1
7	956	11.364128325843	0
7	992	12.364128325843	1
7	993	12.364128325843	0
7	1026	13.364128325843	1
7	1027	13.364128325843	0
7	1054	14.364128325843	1
7	1055	14.364128325843	0
8	9	0	1
8	25	0	0
8	88	0.000164	1
8	104	0.000164	0
8	169	0.000328	1
8	185	0.000328	0
8	248	0.000492	1
8	264	0.000492	0
8	329	0.000656	1
8	345	0.000656	0
8	411	0.000756	1
8	427	0.000756	0
8	493	0.000856	1
8	509	0.000856	0
8	575	0.000956	1
8	591	0.000956	0
8	642	0.001056	1
8	657	0.001056	0
9	10	0	1
9	26	0	0
9	91	0.000164	1
9	107	0.000164	0
9	170	0.000328	1
9	186	0.000328	0
9	251	0.000492	1
9	267	0.000492	0
9	330	0.000656	1
9	346	0.000656	0
9	408	0.000756	1
9	424	0.000756	0
9	486	0.000856	1
9	502	0.000856	0
9	564	0.000956	1
9	580	0.000956	0
9	735	3.860860212075	1
9	736	3.860860212075	0
9	762	4.860860212075	1
9	763	4.860860212075	0
9	812	6.52702540626	1
9	813	6.52702540626	0
9	845	7.565184706924	1
9	846	7.565184706924	0
9	869	8.565184706924	1
9	870	8.565184706924	0
9	931	10.364228325843	1
9	932	10.364228325843	0
9	960	11.364228325843	1
9	961	11.364228325843	0
9	997	12.364228325843	1
9	998	12.364228325843	0
9	1031	13.364228325843	1
9	1032	13.364228325843	0
9	1059	14.364228325843	1
9	1060	14.364228325843	0
10	11	0	1
10	27	0	0
10	90	0.000164	1
10	106	0.000164	0
10	171	0.000328	1
10	187	0.000328	0
10	250	0.000492	1
10	266	0.000492	0
10	331	0.000656	1
10	347	0.000656	0
10	413	0.000756	1
10	429	0.000756	0
10	495	0.000856	1
10	511	0.000856	0
10	561	0.000956	1
10	577	0.000956	0
10	644	0.001056	1
10	658	0.001056	0
11	12	0	1
11	28	0	0
11	93	0.000164	1
11	109	0.000164	0
11	172	0.000328	1
11	188	0.000328	0
11	253	0.000492	1
11	269	0.000492	0
11	332	0.000656	1
11	348	0.000656	0
11	410	0.000756	1
11	426	0.000756	0
11	488	0.000856	1
11	504	0.000856	0
11	566	0.000956	1
11	582	0.000956	0
12	13	0	1
12	29	0	0
12	92	0.000164	1
12	108	0.000164	0
12	173	0.000328	1
12	189	0.000328	0
12	252	0.000492	1
12	268	0.000492	0
12	333	0.000656	1
12	349	0.000656	0
12	415	0.000756	1
12	431	0.000756	0
12	481	0.000856	1
12	497	0.000856	0
12	563	0.000956	1
12	579	0.000956	0
12	646	0.001056	1
12	659	0.001056	0
12	721	2.899816388484	1
12	722	2.899816388484	0
12	741	3.899816388484	1
12	742	3.899816388484	0
12	791	5.774584855839	1
12	792	5.774584855839	0
12	828	6.774584855839	1
12	829	6.774584855839	0
12	856	7.774584855839	1
12	857	7.774584855839	0
12	886	8.774584855839	1
12	887	8.774584855839	0
12	915	9.774584855839	1
12	916	9.774584855839	0
12	942	10.774584855839	1
12	943	10.774584855839	0
12	972	11.774584855839	1
12	973	11.774584855839	0
12	1020	13.083120138406	1
12	1021	13.083120138406	0
12	1045	14.083120138406	1
12	1046	14.083120138406	0
12	1081	15.083120138406	1
12	1082	15.083120138406	0
13	14	0	1
13	30	0	0
13	95	0.000164	1
13	111	0.000164	0
13	174	0.000328	1
13	190	0.000328	0
13	255	0.000492	1
13	271	0.000492	0
13	334	0.000656	1
13	350	0.000656	0
13	412	0.000756	1
13	428	0.000756	0
13	490	0.000856	1
13	506	0.000856	0
13	568	0.000956	1
13	584	0.000956	0
14	15	0	1
14	31	0	0
14	94	0.000164	1
14	110	0.000164	0
14	175	0.000328	1
14	191	0.000328	0
14	254	0.000492	1
14	270	0.000492	0
14	335	0.000656	1
14	351	0.000656	0
14	401	0.000756	1
14	417	0.000756	0
14	483	0.000856	1
14	499	0.000856	0
14	565	0.000956	1
14	581	0.000956	0
14	648	0.001056	1
14	660	0.001056	0
14	703	1.899716388484	1
14	704	1.899716388484	0
14	717	2.899716388484	1
14	718	2.899716388484	0
14	756	4.774484855839	1
14	757	4.774484855839	0
14	787	5.774484855839	1
14	788	5.774484855839	0
14	823	6.774484855839	1
14	824	6.774484855839	0
14	851	7.774484855839	1
14	852	7.774484855839	0
14	881	8.774484855839	1
14	882	8.774484855839	0
14	910	9.774484855839	1
14	911	9.774484855839	0
14	937	10.774484855839	1
14	938	10.774484855839	0
14	983	12.083020138406	1
14	984	12.083020138406	0
14	1016	13.083020138406	1
14	1017	13.083020138406	0
14	1040	14.083020138406	1
14	1041	14.083020138406	0
15	16	0	1
15	32	0	0
15	81	0.000164	1
15	97	0.000164	0
15	176	0.000328	1
15	192	0.000328	0
15	241	0.000492	1
15	257	0.000492	0
15	336	0.000656	1
15	352	0.000656	0
15	414	0.000756	1
15	430	0.000756	0
15	492	0.000856	1
15	508	0.000856	0
15	570	0.000956	1
15	586	0.000956	0
16	641	0.001056	0
17	641	0.001056	1
18	643	0.001056	0
18	745	3.899916388484	3.0003
18	766	4.860960212075	3.0003
18	770	4.899916388484	3.077076868529
18	799	5.860960212075	3.213098860018
18	832	6.774684855839	3.0003
18	836	7.52712540626	3.0003
18	860	7.774684855839	3.44925151333
18	873	8.565284706924	3.0003
18	890	8.774684855839	3.472245086937
18	905	9.565284706924	3.424780803117
18	919	9.774684855839	3.987116923215
18	946	10.774684855839	4.633957784077
18	964	11.364328325843	3.0003
18	976	11.774684855839	5.575573114984
18	1001	12.364328325843	3.681943859158
18	1011	12.774684855839	3.260660835056
18	1035	13.364328325843	4.19834175421
18	1049	14.083220138406	3.0003
18	1063	14.364328325843	4.548895405959
18	1085	15.083220138406	3.247625886687
19	643	0.001056	1
19	745	3.899916388484	1
19	766	4.860960212075	1
19	770	4.899916388484	1
19	799	5.860960212075	1
19	832	6.774684855839	1
19	836	7.52712540626	1
19	860	7.774684855839	1
19	873	8.565284706924	1
19	890	8.774684855839	1
19	905	9.565284706924	1
19	919	9.774684855839	1
19	946	10.774684855839	1
19	964	11.364328325843	1
19	976	11.774684855839	1
19	1001	12.364328325843	1
19	1011	12.774684855839	1
19	1035	13.364328325843	1
19	1049	14.083220138406	1
19	1063	14.364328325843	1
19	1085	15.083220138406	1
20	645	0.001056	0
21	645	0.001056	1
22	647	0.001056	0
23	647	0.001056	1
24	651	0.001056	0
25	651	0.001056	1
26	655	0.001056	0
27	655	0.001056	1
28	690	0.899616388484	0
28	694	1.822839519955	0
28	724	3.774384855839	0
28	747	4.325433342509	0
28	772	5.302439768902	0
28	794	5.787567932624	0
28	804	6.140727071762	0
28	807	6.199111740855	0
28	900	9.514024020783	0
28	948	11.082920138406	0
28	978	11.835594251719	0
28	1006	12.675027104619	0
28	1065	14.483396368894	0
28	1069	14.557081724359	0
28	1072	14.968659720602	0
28	1075	15.059820746726	0
29	690	0.899616388484	0
29	694	1.822839519955	0
29	724	3.774384855839	0
29	747	4.325433342509	0
29	772	5.302439768902	0
29	794	5.787567932624	0
29	804	6.140727071762	0
29	807	6.199111740855	0
29	900	9.514024020783	0
29	948	11.082920138406	0
29	978	11.835594251719	0
29	1006	12.675027104619	0
29	1065	14.483396368894	0
29	1069	14.557081724359	0
29	1072	14.968659720602	0
29	1075	15.059820746726	0
30	697	1.860660212075	0
30	706	2.647861352057	0
30	750	4.52682540626	0
30	780	5.564984706924	0
30	801	6.140503903807	0
30	862	8.364028325843	0
30	875	8.682384466685	0
30	892	9.165986571633	0
30	921	9.815432919884	0
30	966	11.487644120209	0
30	986	12.14152668743	0
30	1003	12.640398696446	0
31	697	1.860660212075	0
31	706	2.647861352057	0
31	750	4.52682540626	0
31	780	5.564984706924	0
31	801	6.140503903807	0
31	862	8.364028325843	0
31	875	8.682384466685	0
31	892	9.165986571633	0
31	921	9.815432919884	0
31	966	11.487644120209	0
31	986	12.14152668743	0
31	1003	12.640398696446	0
32	702	1.899716388484	2
32	716	2.899716388484	2
32	755	4.774484855839	2
32	786	5.774484855839	2
32	822	6.774484855839	2
32	850	7.774484855839	2
32	880	8.774484855839	2
32	909	9.774484855839	2
32	936	10.774484855839	2
32	982	12.083020138406	2
32	1015	13.083020138406	2
32	1039	14.083020138406	2
33	702	1.899716388484	1.0001
33	716	2.899716388484	1.076876868529
33	755	4.774484855839	1.0001
33	786	5.774484855839	1.44905151333
33	822	6.774484855839	1.472045086937
33	850	7.774484855839	1.986916923215
33	880	8.774484855839	2.633757784077
33	909	9.774484855839	3.575373114984
33	936	10.774484855839	1.260460835056
33	982	12.083020138406	1.0001
33	1015	13.083020138406	1.247425886687
33	1039	14.083020138406	1.407993033787
34	710	2.860760212075	2
34	730	3.860760212075	2
34	776	5.52692540626	2
34	816	6.565084706924	2
34	840	7.565084706924	2
34	896	9.364128325843	2
34	926	10.364128325843	2
34	954	11.364128325843	2
34	991	12.364128325843	2
34	1025	13.364128325843	2
34	1053	14.364128325843	2
35	710	2.860760212075	1.0001
35	730	3.860760212075	1.212898860018
35	776	5.52692540626	1.0001
35	816	6.565084706924	1.0001
35	840	7.565084706924	1.424580803117
35	896	9.364128325843	1.0001
35	926	10.364128325843	1.681743859158
35	954	11.364128325843	2.19814175421
35	991	12.364128325843	2.548695405959
35	1025	13.364128325843	1.876484205634
35	1053	14.364128325843	2.222601638413
36	720	2.899816388484	3
36	740	3.899816388484	3
36	790	5.774584855839	3
36	827	6.774584855839	3
36	855	7.774584855839	3
36	885	8.774584855839	3
36	914	9.774584855839	3
36	941	10.774584855839	3
36	971	11.774584855839	3
36	1019	13.083120138406	3
36	1044	14.083120138406	3
36	1080	15.083120138406	3
37	720	2.899816388484	2.0002
37	740	3.899816388484	2.076976868529
37	790	5.774584855839	2.0002
37	827	6.774584855839	2.44915151333
37	855	7.774584855839	2.472145086937
37	885	8.774584855839	2.987016923215
37	914	9.774584855839	3.633857784077
37	941	10.774584855839	4.575473114984
37	971	11.774584855839	2.260560835056
37	1019	13.083120138406	2.0002
37	1044	14.083120138406	2.247525886687
37	1080	15.083120138406	2.408093033787
38	734	3.860860212075	3
38	761	4.860860212075	3
38	811	6.52702540626	3
38	844	7.565184706924	3
38	868	8.565184706924	3
38	930	10.364228325843	3
38	959	11.364228325843	3
38	996	12.364228325843	3
38	1030	13.364228325843	3
38	1058	14.364228325843	3
39	734	3.860860212075	2.0002
39	761	4.860860212075	2.212998860018
39	811	6.52702540626	2.0002
39	844	7.565184706924	2.0002
39	868	8.565184706924	2.424680803117
39	930	10.364228325843	2.0002
39	959	11.364228325843	2.681843859158
39	996	12.364228325843	3.19824175421
39	1030	13.364228325843	3.548795405959
39	1058	14.364228325843	2.876584205634
40	744	3.899916388484	4
40	765	4.860960212075	4
40	769	4.899916388484	4
40	798	5.860960212075	4
40	831	6.774684855839	4
40	835	7.52712540626	4
40	859	7.774684855839	4
40	872	8.565284706924	4
40	889	8.774684855839	4
40	904	9.565284706924	4
40	918	9.774684855839	4
40	945	10.774684855839	4
40	963	11.364328325843	4
40	975	11.774684855839	4
40	1000	12.364328325843	4
40	1010	12.774684855839	4
40	1034	13.364328325843	4
40	1048	14.083220138406	4
40	1062	14.364328325843	4
40	1084	15.083220138406	4
41	744	3.899916388484	3.0003
41	765	4.860960212075	3.0003
41	769	4.899916388484	3.077076868529
41	798	5.860960212075	3.213098860018
41	831	6.774684855839	3.0003
41	835	7.52712540626	3.0003
41	859	7.774684855839	3.44925151333
41	872	8.565284706924	3.0003
41	889	8.774684855839	3.472245086937
41	904	9.565284706924	3.424780803117
41	918	9.774684855839	3.987116923215
41	945	10.774684855839	4.633957784077
41	963	11.364328325843	3.0003
41	975	11.774684855839	5.575573114984
41	1000	12.364328325843	3.681943859158
41	1010	12.774684855839	3.260660835056
41	1034	13.364328325843	4.19834175421
41	1048	14.083220138406	3.0003
41	1062	14.364328325843	4.548895405959
41	1084	15.083220138406	3.247625886687

