version 3
run General-0-20220730-16:29:00-21948
attr configname General
attr datetime 20220730-16:29:00
attr datetimef 20220730-162900
attr experiment General
attr inifile omnetpp.ini
attr iterationvars ""
attr iterationvarsd ""
attr iterationvarsf ""
attr measurement ""
attr network Network
attr processid 21948
attr repetition 0
attr replication #0
attr resultdir results
attr runnumber 0
attr seedset 0
config network Network
config sim-time-limit 200s
config Network.nodeTx.gen.generationInterval exponential(0.1)
config Network.nodeTx.gen.packetByteSize 12500
config Network.nodeTx.transTx.bufferSize 200000
config Network.queue.bufferSize 200
config Network.nodeRx.transRx.bufferSize 200

vector 0 Network.nodeTx.gen pktGen ETV
vector 1 Network.nodeTx.transTx bufferSize ETV
vector 2 Network.queue bufferSize ETV
vector 3 Network.nodeRx.transRx bufferSize ETV
vector 4 Network.nodeRx.sink Delay ETV
vector 5 Network.nodeRx.sink packetUsed ETV
vector 6 Network.queue1 bufferSize ETV
0	1	0.079587450457	1
0	4	0.169443489305	1
0	11	0.29503656511	1
0	21	0.480996986317	1
0	24	0.573319299464	1
0	39	0.768473833052	1
0	45	0.84719394705	1
0	56	1.03509035247	1
0	61	1.090195201137	1
0	68	1.187895843776	1
0	74	1.291711773842	1
0	78	1.340224590214	1
0	87	1.397776509902	1
0	89	1.433092423816	1
0	102	1.65544486602	1
0	104	1.661283332929	1
0	122	1.992774560922	1
0	125	2.024610175006	1
0	127	2.072970385501	1
0	137	2.137915020326	1
0	148	2.294804632088	1
0	155	2.46202575212	1
0	161	2.537293163451	1
0	168	2.602681420173	1
0	172	2.686624705463	1
0	176	2.736511906365	1
0	196	2.99633731495	1
0	203	3.177174241377	1
0	209	3.184542776924	1
0	211	3.225700576548	1
0	213	3.23481667916	1
0	219	3.339277929991	1
0	221	3.341320488831	1
0	228	3.387245302557	1
0	238	3.565994068901	1
0	258	3.881011061769	1
0	265	4.031589487633	1
0	267	4.046712572999	1
0	282	4.250743998793	1
0	293	4.454833220384	1
0	308	4.839355407298	1
0	317	4.903526324566	1
0	326	5.064050280272	1
0	336	5.225450487761	1
0	341	5.287343433724	1
0	345	5.360839875843	1
0	354	5.512493473242	1
0	367	5.626087367413	1
0	370	5.638674808357	1
0	376	5.766197578579	1
0	383	5.868340766014	1
0	389	5.955572885518	1
0	391	5.971045853568	1
0	398	6.048129319415	1
0	417	6.337571367214	1
0	425	6.479707835223	1
0	430	6.553490564399	1
0	432	6.564685180462	1
0	439	6.618241752485	1
0	445	6.682411222688	1
0	447	6.713139257903	1
0	449	6.733759586106	1
0	460	6.882585068681	1
0	471	7.016114087143	1
0	473	7.077022329461	1
0	479	7.101427178535	1
0	486	7.185460649096	1
0	488	7.199988451825	1
0	490	7.201885308745	1
0	492	7.241062389813	1
0	498	7.33720048372	1
0	500	7.353414132665	1
0	507	7.448113800382	1
0	509	7.473257993589	1
0	515	7.569212791326	1
0	522	7.618068496257	1
0	541	7.905859998385	1
0	552	8.138751335806	1
0	559	8.253265231276	1
0	565	8.313039838958	1
0	567	8.357591688463	1
0	578	8.452541146813	1
0	584	8.509994387487	1
0	595	8.742629493656	1
0	602	8.862240273602	1
0	604	8.87269639618	1
0	606	8.878907925227	1
0	630	9.228929293672	1
0	636	9.338820540427	1
0	643	9.444703953576	1
0	649	9.555763698145	1
0	651	9.574506304747	1
0	658	9.598126975355	1
0	660	9.642467378217	1
0	662	9.65627024706	1
0	677	9.795174516039	1
0	679	9.833070712467	1
0	685	9.926676868444	1
0	687	9.971887074466	1
0	694	10.011198330196	1
0	700	10.095641109549	1
0	702	10.09955942519	1
0	704	10.157291856271	1
0	711	10.257878956788	1
0	739	10.703328641406	1
0	755	11.022623305611	1
0	757	11.033386816427	1
0	763	11.139169457762	1
0	765	11.16259960964	1
0	776	11.263401534182	1
0	782	11.280992888725	1
0	807	11.817002923749	1
0	817	11.922877195258	1
0	824	12.010068780621	1
0	826	12.039276833948	1
0	832	12.092783301656	1
0	834	12.155577459755	1
0	841	12.219955559915	1
0	843	12.247983260763	1
0	849	12.34566966817	1
0	851	12.362982413785	1
0	858	12.404232536777	1
0	860	12.415928077756	1
0	866	12.528244907909	1
0	877	12.635052127624	1
0	879	12.673207711961	1
0	885	12.688078938886	1
0	892	12.838742472213	1
0	894	12.860630531864	1
0	909	13.159349521049	1
0	916	13.205350916823	1
0	926	13.313977854911	1
0	937	13.486011020683	1
0	939	13.487377478526	1
0	941	13.497591966678	1
0	948	13.595102160094	1
0	954	13.777084052022	1
0	965	13.889065488597	1
0	967	13.899168966128	1
0	987	14.256527803362	1
0	1007	14.63143094932	1
0	1022	14.841963079399	1
0	1028	14.905196739039	1
0	1030	14.976455098372	1
0	1050	15.352647826822	1
0	1052	15.358380519464	1
0	1063	15.451228369154	1
0	1069	15.511223057818	1
0	1076	15.645647585033	1
0	1078	15.647666597848	1
0	1080	15.651664227754	1
0	1086	15.709952066641	1
0	1088	15.743193090737	1
0	1112	16.132350103022	1
0	1114	16.145155779553	1
0	1121	16.189697725745	1
0	1123	16.224815334683	1
0	1129	16.290379963119	1
0	1131	16.303018826762	1
0	1138	16.419706179417	1
0	1140	16.457976274303	1
0	1151	16.670399994003	1
0	1157	16.723888431579	1
0	1172	16.974279609888	1
0	1179	16.980909350036	1
0	1181	17.005348894844	1
0	1187	17.123267847551	1
0	1194	17.206552199158	1
0	1200	17.290161952355	1
0	1215	17.490486004606	1
0	1217	17.521327488616	1
0	1224	17.592452282338	1
0	1226	17.666528177383	1
0	1241	17.915086413081	1
0	1243	17.924951443923	1
0	1254	18.178981894719	1
0	1265	18.264771458826	1
0	1267	18.27344850706	1
0	1282	18.538374099928	1
0	1284	18.570908141481	1
0	1291	18.609264162891	1
0	1293	18.610204237957	1
0	1299	18.720288828966	1
0	1314	18.905021594066	1
0	1316	18.919154665422	1
0	1323	19.02333273084	1
0	1329	19.149326111851	1
0	1339	19.333454359	1
0	1342	19.367619775703	1
0	1347	19.398371548079	1
0	1349	19.418606591936	1
0	1352	19.469326604262	1
0	1357	19.557639508458	1
0	1368	19.638119248438	1
0	1370	19.640150494318	1
0	1372	19.658175719516	1
0	1381	19.834749826757	1
0	1386	19.880922916361	1
0	1388	19.88139357041	1
0	1390	19.897227721033	1
0	1397	20.01049113523	1
0	1402	20.094799438445	1
0	1404	20.12627160453	1
0	1411	20.247922469874	1
0	1424	20.380798257249	1
0	1426	20.414832931073	1
0	1439	20.742347248844	1
0	1444	20.799137664192	1
0	1447	20.827739761443	1
0	1452	20.968842202372	1
0	1462	21.054681499155	1
0	1467	21.105115879814	1
0	1473	21.194774966893	1
0	1482	21.421148324479	1
0	1487	21.506070405635	1
0	1493	21.607936278637	1
0	1495	21.633178277926	1
0	1509	21.855328967773	1
0	1520	22.160557133461	1
0	1526	22.274517929814	1
0	1531	22.333780332559	1
0	1540	22.393418271992	1
0	1549	22.580764259978	1
0	1561	22.965064918302	1
0	1573	23.085288775027	1
0	1575	23.097641439763	1
0	1578	23.13294345309	1
0	1583	23.278625308946	1
0	1592	23.446717529401	1
0	1596	23.499789779063	1
0	1598	23.550291653838	1
0	1605	23.662819855522	1
0	1617	23.875769795129	1
0	1621	23.904510842736	1
0	1627	23.991564425369	1
0	1629	24.02913830961	1
0	1638	24.242621354608	1
0	1653	24.579058399913	1
0	1660	24.696996693277	1
0	1666	24.785782834321	1
0	1671	24.914973761201	1
0	1676	25.022757249615	1
0	1681	25.092337195705	1
0	1684	25.168523972835	1
0	1702	25.481070808601	1
0	1704	25.507276532769	1
0	1709	25.610556233834	1
0	1711	25.66078731366	1
0	1715	25.715926912673	1
0	1721	25.812372269222	1
0	1730	25.905612557263	1
0	1732	25.970023028095	1
0	1734	25.97196100623	1
0	1739	26.035473777793	1
0	1741	26.07136649938	1
0	1750	26.197270851106	1
0	1754	26.305202870972	1
0	1756	26.33916934423	1
0	1758	26.3734293067	1
0	1763	26.421792875359	1
0	1768	26.518030380936	1
0	1778	26.65632830159	1
0	1782	26.712324408597	1
0	1791	26.923069169092	1
0	1793	26.937626566937	1
0	1795	26.948481276786	1
0	1800	26.983903690011	1
0	1802	26.993595965469	1
0	1804	27.077984812728	1
0	1808	27.121687614105	1
0	1814	27.211060521936	1
0	1823	27.291315720512	1
0	1825	27.376723694076	1
0	1830	27.380144035912	1
0	1835	27.48604497445	1
0	1847	27.833298522378	1
0	1852	27.938883483244	1
0	1854	27.977596492459	1
0	1863	28.034057542571	1
0	1865	28.059065692069	1
0	1876	28.285929091338	1
0	1878	28.301158453863	1
0	1880	28.346975742259	1
0	1882	28.357207803744	1
0	1887	28.414453958887	1
0	1905	28.828234934938	1
0	1914	29.050726400661	1
0	1918	29.080882991983	1
0	1924	29.244972749776	1
0	1928	29.321980435731	1
0	1938	29.443682385265	1
0	1942	29.503089735097	1
0	1944	29.51365099946	1
0	1946	29.52413918302	1
0	1955	29.776067396028	1
0	1960	29.819501961622	1
0	1965	29.944762714113	1
0	1970	30.008108975885	1
0	1997	30.684648027879	1
0	2007	30.868621306387	1
0	2011	30.884808315058	1
0	2020	31.119826044033	1
0	2027	31.322416925743	1
0	2029	31.326245217031	1
0	2032	31.343977774546	1
0	2037	31.414969567268	1
0	2046	31.51056620966	1
0	2048	31.528820069848	1
0	2050	31.542038440809	1
0	2058	31.69302078637	1
0	2066	31.881413675029	1
0	2074	32.081612324582	1
0	2084	32.246284234715	1
0	2088	32.299284522529	1
0	2094	32.383472618702	1
0	2096	32.398551719721	1
0	2098	32.45083872273	1
0	2100	32.454217401285	1
0	2102	32.461384939716	1
0	2117	32.866369623596	1
0	2128	32.985913480224	1
0	2130	33.032640736865	1
0	2135	33.09307064405	1
0	2137	33.147556356864	1
0	2143	33.275589777245	1
0	2147	33.280781032463	1
0	2155	33.482058306084	1
0	2157	33.527549490563	1
0	2176	33.898545549753	1
0	2178	33.900222326352	1
0	2185	34.093880050101	1
0	2187	34.120112981018	1
0	2189	34.12129130421	1
0	2196	34.266070712409	1
0	2204	34.310695994461	1
0	2216	34.599157169671	1
0	2220	34.730087006073	1
0	2226	34.868716141275	1
0	2230	34.887545638797	1
0	2232	34.929006893063	1
0	2242	35.002620003062	1
0	2244	35.069866054745	1
0	2246	35.075453060034	1
0	2250	35.116850952301	1
0	2252	35.139164873111	1
0	2254	35.158947823857	1
0	2256	35.160817370899	1
0	2258	35.179569266019	1
0	2267	35.33741053823	1
0	2272	35.399670272628	1
0	2274	35.425020843142	1
0	2284	35.632623949186	1
0	2286	35.674989659322	1
0	2305	35.963444088163	1
0	2319	36.226665974418	1
0	2325	36.32037984619	1
0	2338	36.442259526524	1
0	2344	36.533055929256	1
0	2346	36.536291609721	1
0	2355	36.689374732348	1
0	2357	36.707370466503	1
0	2361	36.776690443457	1
0	2368	36.873838659266	1
0	2370	36.879006949846	1
0	2376	36.965099313514	1
0	2389	37.085196404168	1
0	2391	37.112363211202	1
0	2416	37.600276500001	1
0	2433	37.872411325592	1
0	2437	37.903508106089	1
0	2444	37.998691076843	1
0	2450	38.112350726369	1
0	2457	38.189058691826	1
0	2468	38.388775888575	1
0	2472	38.477913746266	1
0	2485	38.616881452644	1
0	2493	38.74785998978	1
0	2511	39.081653423165	1
0	2513	39.119042072755	1
0	2524	39.199840078095	1
0	2528	39.250626590364	1
0	2530	39.274501877649	1
0	2534	39.298054334991	1
0	2536	39.323214196302	1
0	2540	39.34381740115	1
0	2542	39.36850332803	1
0	2558	39.65741088722	1
0	2564	39.741708764761	1
0	2571	39.876243508084	1
0	2581	39.936411406736	1
0	2586	40.0038358637	1
0	2601	40.355283731754	1
0	2606	40.381085008148	1
0	2612	40.495198798434	1
0	2614	40.524549563626	1
0	2617	40.533464992626	1
0	2619	40.539443088918	1
0	2621	40.54525032513	1
0	2631	40.602240081661	1
0	2634	40.66915145403	1
0	2639	40.706518433469	1
0	2648	40.919385442922	1
0	2655	41.038571253287	1
0	2676	41.41324071467	1
0	2679	41.460682343703	1
0	2684	41.55682630086	1
0	2686	41.576623074393	1
0	2692	41.654820646481	1
0	2694	41.657319481812	1
0	2703	41.8501554955	1
0	2705	41.857117262607	1
0	2718	41.993310435038	1
0	2723	42.107064285592	1
0	2726	42.172187358784	1
0	2732	42.232645480618	1
0	2737	42.345681035209	1
0	2742	42.422593015319	1
0	2747	42.51599904858	1
0	2761	42.742983050158	1
0	2767	42.868403377167	1
0	2785	43.332368629804	1
0	2794	43.395761631743	1
0	2797	43.420210733947	1
0	2801	43.481094025321	1
0	2807	43.589884468682	1
0	2816	43.826776285766	1
0	2818	43.857336775947	1
0	2820	43.872096379236	1
0	2822	43.874183101097	1
0	2826	43.900218242252	1
0	2833	44.042256587811	1
0	2846	44.255612916558	1
0	2850	44.294181685963	1
0	2858	44.528966062106	1
0	2861	44.577329900855	1
0	2868	44.681114908404	1
0	2871	44.769865101252	1
0	2881	44.809122404071	1
0	2889	44.986936737754	1
0	2891	45.060273505071	1
0	2896	45.159423934361	1
0	2898	45.159429469551	1
0	2906	45.365511593639	1
0	2912	45.402887923021	1
0	2914	45.434845388508	1
0	2922	45.490262471413	1
0	2928	45.650234415597	1
0	2936	45.866810783684	1
0	2940	45.887345560558	1
0	2946	46.001251325625	1
0	2961	46.306569792584	1
0	2964	46.367474253855	1
0	2971	46.483785582198	1
0	2973	46.549835890173	1
0	2976	46.57410773954	1
0	2984	46.729574033321	1
0	3000	47.024022061063	1
0	3002	47.050086074001	1
0	3009	47.181336873298	1
0	3018	47.393611538692	1
0	3020	47.422906684541	1
0	3022	47.460549619693	1
0	3026	47.484541971637	1
0	3042	47.800251525779	1
0	3045	47.873274292303	1
0	3049	47.937093152862	1
0	3051	47.939692927381	1
0	3057	48.064028005176	1
0	3061	48.087280507014	1
0	3063	48.103967971137	1
0	3065	48.159251808202	1
0	3078	48.290349045018	1
0	3080	48.337216692616	1
0	3085	48.441137256274	1
0	3089	48.50342018725	1
0	3092	48.527612151727	1
0	3094	48.560133753525	1
0	3099	48.580769552885	1
0	3102	48.669148118488	1
0	3110	48.833955735804	1
0	3122	49.033359655932	1
0	3127	49.170827651312	1
0	3132	49.183330910304	1
0	3137	49.295676960259	1
0	3139	49.368529344532	1
0	3144	49.400949255881	1
0	3146	49.415113459361	1
0	3148	49.434339603445	1
0	3153	49.560520870794	1
0	3165	49.682420805312	1
0	3167	49.732848798637	1
0	3172	49.795052490545	1
0	3175	49.87839031461	1
0	3183	50.061916654904	1
0	3187	50.082162531274	1
0	3189	50.105086963795	1
0	3191	50.120734540833	1
0	3194	50.138761970791	1
0	3199	50.205716029877	1
0	3201	50.219050092204	1
0	3204	50.262995631253	1
0	3215	50.391038066651	1
0	3224	50.673101661493	1
0	3226	50.676194290649	1
0	3234	50.821149768292	1
0	3239	50.958584069734	1
0	3250	51.096680379301	1
0	3253	51.106397147138	1
0	3261	51.340446343204	1
0	3263	51.364966152468	1
0	3265	51.373677010794	1
0	3273	51.512008657409	1
0	3279	51.592347833676	1
0	3283	51.723910459506	1
0	3293	51.811731967378	1
0	3295	51.816400741742	1
0	3306	52.143250381824	1
0	3308	52.16671596675	1
0	3314	52.201267925121	1
0	3316	52.235083396605	1
0	3318	52.262636190309	1
0	3322	52.375728038228	1
0	3327	52.386296755638	1
0	3329	52.392808042117	1
0	3331	52.394464651559	1
0	3334	52.475578753782	1
0	3349	52.740834605334	1
0	3351	52.741762907772	1
0	3357	52.852603883193	1
0	3364	53.031602843641	1
0	3377	53.185385715089	1
0	3391	53.600982824645	1
0	3393	53.634073812763	1
0	3398	53.755642860099	1
0	3404	53.843930914595	1
0	3406	53.863975134104	1
0	3408	53.870584335173	1
0	3416	53.942408983184	1
0	3421	54.008889758139	1
0	3426	54.095746331286	1
0	3439	54.475148709595	1
0	3450	54.630049877511	1
0	3459	54.839205534773	1
0	3463	54.9324667203	1
0	3465	54.973739706973	1
0	3470	54.998381289194	1
0	3485	55.324273386912	1
0	3491	55.385001315774	1
0	3493	55.411359027058	1
0	3501	55.622447904496	1
0	3515	55.920667972043	1
0	3526	55.988448172249	1
0	3539	56.272112191587	1
0	3548	56.397835891144	1
0	3556	56.558381767451	1
0	3561	56.624966016115	1
0	3571	56.724512380452	1
0	3578	56.847800426755	1
0	3591	57.055176573065	1
0	3595	57.12412002685	1
0	3599	57.158795357229	1
0	3608	57.344938521527	1
0	3623	57.533948691337	1
0	3627	57.555558312996	1
0	3632	57.651759505655	1
0	3643	57.80018375392	1
0	3645	57.801516278403	1
0	3666	58.167482011479	1
0	3671	58.210135592683	1
0	3682	58.408410483143	1
0	3684	58.424443892592	1
0	3692	58.576050785575	1
0	3716	58.976845751062	1
0	3739	59.397031693687	1
0	3743	59.462111427923	1
0	3756	59.602178997619	1
0	3759	59.670973345465	1
0	3761	59.671378977597	1
0	3766	59.773397686392	1
0	3773	59.804797476198	1
0	3775	59.850776607976	1
0	3779	59.903623330806	1
0	3782	59.918345834537	1
0	3785	59.974246601536	1
0	3794	60.14690993951	1
0	3805	60.182269597036	1
0	3807	60.203322925856	1
0	3809	60.254594390119	1
0	3815	60.326198921918	1
0	3817	60.339056945646	1
0	3819	60.364458083481	1
0	3837	60.759221410237	1
0	3839	60.769518246609	1
0	3844	60.821626128717	1
0	3858	61.019815162828	1
0	3863	61.104028793112	1
0	3877	61.46492289361	1
0	3881	61.507022223415	1
0	3899	61.831018520105	1
0	3907	61.98654795614	1
0	3917	62.223586714201	1
0	3919	62.276582872128	1
0	3932	62.425325847562	1
0	3934	62.469840781503	1
0	3939	62.510359069737	1
0	3941	62.561358153122	1
0	3943	62.569816102298	1
0	3948	62.605745492811	1
0	3951	62.658042258177	1
0	3959	62.807305474596	1
0	3961	62.83373252101	1
0	3977	63.094389701242	1
0	3979	63.108602252381	1
0	3981	63.147952493493	1
0	3983	63.153443230748	1
0	3996	63.458929208649	1
0	4004	63.588243994529	1
0	4006	63.589648653653	1
0	4008	63.590797978674	1
0	4010	63.667040347095	1
0	4022	63.814260762894	1
0	4025	63.850584984784	1
0	4027	63.86647830275	1
0	4037	64.080916849201	1
0	4039	64.089203076493	1
0	4042	64.118054347528	1
0	4044	64.127441802256	1
0	4050	64.240579679016	1
0	4054	64.352068421207	1
0	4067	64.518364999274	1
0	4069	64.546517401521	1
0	4074	64.603106855684	1
0	4077	64.657672627161	1
0	4085	64.797159536287	1
0	4087	64.878661369377	1
0	4096	65.055623351698	1
0	4107	65.252629108257	1
0	4112	65.300276966517	1
0	4118	65.430121530077	1
0	4120	65.440274938471	1
0	4122	65.471790941343	1
0	4126	65.501381128668	1
0	4128	65.51547791711	1
0	4134	65.605110837612	1
0	4136	65.610807490859	1
0	4138	65.675524961263	1
0	4143	65.711421093101	1
0	4145	65.7783513803	1
0	4154	65.808748536223	1
0	4156	65.870092445182	1
0	4161	65.930998890714	1
0	4167	66.005357209892	1
0	4171	66.120331348667	1
0	4173	66.178673725771	1
0	4181	66.297623350904	1
0	4193	66.489107576668	1
0	4195	66.522447910506	1
0	4197	66.57926495888	1
0	4203	66.627056757631	1
0	4211	66.802428222133	1
0	4213	66.822413775925	1
0	4217	66.893614582487	1
0	4223	67.04898913269	1
0	4226	67.058022857098	1
0	4228	67.063875646993	1
0	4232	67.171768337843	1
0	4243	67.291169674903	1
0	4246	67.314311772099	1
0	4252	67.465133295262	1
0	4259	67.653045138683	1
0	4268	67.803286418054	1
0	4276	67.917655480113	1
0	4278	67.947687988142	1
0	4280	67.967334176732	1
0	4286	68.014144822055	1
0	4288	68.021386733066	1
0	4293	68.109962797669	1
0	4295	68.110936338603	1
0	4297	68.142794723391	1
0	4305	68.365403122335	1
0	4310	68.411742125089	1
0	4312	68.426067427227	1
0	4314	68.448014243316	1
0	4326	68.599060403438	1
0	4328	68.660652331816	1
0	4339	68.919897192694	1
0	4341	68.924460997644	1
0	4346	69.050050346078	1
0	4355	69.210892130987	1
0	4357	69.278387228352	1
0	4365	69.286395113946	1
0	4367	69.349788326595	1
0	4373	69.422942860508	1
0	4381	69.637252830551	1
0	4383	69.673897959734	1
0	4387	69.740921147392	1
0	4393	69.827087896572	1
0	4398	69.880628331681	1
0	4413	70.201109214642	1
0	4416	70.220238819232	1
0	4420	70.323963328642	1
0	4425	70.388454177759	1
0	4427	70.392054460734	1
0	4432	70.545139302628	1
0	4438	70.60142182281	1
0	4446	70.682711658929	1
0	4448	70.754050087209	1
0	4450	70.771469603246	1
0	4456	70.848294937433	1
0	4458	70.863823495983	1
0	4463	70.978203033895	1
0	4470	71.083031944391	1
0	4472	71.11554903144	1
0	4478	71.19303326939	1
0	4480	71.206828592583	1
0	4482	71.246234349778	1
0	4487	71.296103583065	1
0	4489	71.312004784745	1
0	4505	71.6252877337	1
0	4507	71.642707605358	1
0	4509	71.663426123583	1
0	4511	71.677284805725	1
0	4521	71.911608798734	1
0	4527	71.998102609677	1
0	4529	72.076586311636	1
0	4537	72.086266058867	1
0	4539	72.147314343367	1
0	4551	72.388715986418	1
0	4559	72.60245815546	1
0	4561	72.611119854905	1
0	4564	72.672480275879	1
0	4575	72.833613475791	1
0	4580	72.962409673299	1
0	4588	73.172073300651	1
0	4593	73.222993549338	1
0	4595	73.232805501601	1
0	4604	73.467192465681	1
0	4612	73.522758356997	1
0	4618	73.639884726492	1
0	4622	73.703982081018	1
0	4628	73.824253459401	1
0	4632	73.911050457603	1
0	4634	73.950758552605	1
0	4641	74.076722669667	1
0	4652	74.218101002621	1
0	4654	74.220845212664	1
0	4659	74.321922128974	1
0	4665	74.453374338782	1
0	4669	74.480820690982	1
0	4674	74.62647671214	1
0	4676	74.643976216962	1
0	4678	74.644957660602	1
0	4687	74.804113272881	1
0	4689	74.840971566842	1
0	4704	75.160797064519	1
0	4709	75.18730637466	1
0	4711	75.248580919146	1
0	4715	75.318583482758	1
0	4721	75.407983623026	1
0	4736	75.715291145305	1
0	4744	75.91028883649	1
0	4749	75.991890692886	1
0	4751	76.052996449015	1
0	4754	76.063251638315	1
0	4773	76.366645895555	1
0	4780	76.463846984661	1
0	4784	76.549590494922	1
0	4795	76.748384440406	1
0	4806	76.920291371585	1
0	4808	76.937445234322	1
0	4825	77.176963213261	1
0	4850	77.665313112296	1
0	4863	77.834336607772	1
0	4865	77.843219846037	1
0	4869	77.860585502358	1
0	4871	77.870507655006	1
0	4877	77.969635605582	1
0	4884	78.07004072297	1
0	4888	78.120862668375	1
0	4908	78.419040634108	1
0	4910	78.425517203387	1
0	4925	78.701577648955	1
0	4929	78.756748010214	1
0	4934	78.816056169947	1
0	4936	78.845989008189	1
0	4944	78.976072750935	1
0	4959	79.165145666378	1
0	4968	79.300717517763	1
0	4970	79.304104703287	1
0	4972	79.340775218666	1
0	4990	79.660151405934	1
0	4992	79.672908763314	1
0	4996	79.716816461873	1
0	5000	79.775493342541	1
0	5009	79.819608823614	1
0	5013	79.869329752248	1
0	5015	79.870976080646	1
0	5019	79.946872558071	1
0	5023	79.967357784786	1
0	5032	80.154021831804	1
0	5039	80.205314530987	1
0	5045	80.282160788726	1
0	5060	80.547079614949	1
0	5068	80.661107502641	1
0	5070	80.671600777374	1
0	5075	80.76555097596	1
0	5091	81.056142936326	1
0	5093	81.06651001999	1
0	5106	81.270139438717	1
0	5110	81.27979356662	1
0	5114	81.340336944784	1
0	5116	81.346096236466	1
0	5121	81.385652796506	1
0	5123	81.394703543521	1
0	5126	81.421197037285	1
0	5128	81.448269476359	1
0	5133	81.543581730186	1
0	5143	81.726535945772	1
0	5145	81.729899337864	1
0	5151	81.803791339858	1
0	5153	81.805364252235	1
0	5156	81.877328742004	1
0	5165	81.933329579337	1
0	5171	82.03826379593	1
0	5173	82.045313990766	1
0	5178	82.123969899955	1
0	5180	82.152997241467	1
0	5182	82.156297639973	1
0	5188	82.181292721638	1
0	5191	82.268078908627	1
0	5195	82.2972735158	1
0	5202	82.444715738278	1
0	5204	82.458763309974	1
0	5208	82.505960118751	1
0	5210	82.507171043257	1
0	5213	82.574706630274	1
0	5222	82.586978131006	1
0	5238	82.986734478678	1
0	5243	83.083093748307	1
0	5246	83.111151340925	1
0	5263	83.477107552771	1
0	5268	83.523999685498	1
0	5291	83.988027685093	1
0	5293	83.992701175267	1
0	5295	84.045304254843	1
0	5300	84.082420426923	1
0	5302	84.100208102709	1
0	5308	84.278301570198	1
0	5316	84.380123328079	1
0	5321	84.544641670786	1
0	5327	84.612036015208	1
0	5336	84.714207849949	1
0	5351	85.168990235135	1
0	5357	85.214893027884	1
0	5359	85.221646443572	1
0	5361	85.259152637884	1
0	5373	85.412046524955	1
0	5378	85.573912631597	1
0	5383	85.607936353558	1
0	5385	85.615241519273	1
0	5387	85.642872038566	1
0	5393	85.757938297859	1
0	5398	85.866558628975	1
0	5402	85.914479898423	1
0	5404	85.942724569619	1
0	5410	86.043217900525	1
0	5419	86.152837156626	1
0	5431	86.414401249868	1
0	5435	86.487239007171	1
0	5441	86.679612864238	1
0	5446	86.734793076402	1
0	5455	86.803644465206	1
0	5459	86.884542434719	1
0	5462	86.940375113645	1
0	5464	86.974209725515	1
0	5472	87.147121689283	1
0	5478	87.269734910506	1
0	5486	87.403762506704	1
0	5488	87.457352386238	1
0	5496	87.516618128032	1
0	5498	87.561332118292	1
0	5512	87.908396626346	1
0	5521	88.084805365565	1
0	5523	88.129929245414	1
0	5538	88.388911859964	1
0	5541	88.439584181354	1
0	5543	88.44429410846	1
0	5547	88.578496082578	1
0	5552	88.604974309912	1
0	5555	88.664591499052	1
0	5559	88.70744225947	1
0	5574	88.984356707754	1
0	5580	89.15307853663	1
0	5585	89.182815889421	1
0	5603	89.606117469054	1
0	5605	89.654205291484	1
0	5619	90.001490862074	1
0	5624	90.120939856425	1
0	5636	90.356273333232	1
0	5648	90.583644049901	1
0	5650	90.618820788444	1
0	5652	90.631724638762	1
0	5673	91.114696663559	1
0	5675	91.142343935213	1
0	5677	91.171034844751	1
0	5682	91.196946070339	1
0	5685	91.208140524453	1
0	5687	91.275378814657	1
0	5698	91.576875641876	1
0	5712	91.798997060196	1
0	5715	91.825578715098	1
0	5717	91.869912154698	1
0	5725	91.986955727699	1
0	5727	92.035607641675	1
0	5729	92.041620478588	1
0	5740	92.290183587023	1
0	5749	92.421379895131	1
0	5751	92.433463034757	1
0	5760	92.646933274211	1
0	5764	92.746663166628	1
0	5766	92.778468621147	1
0	5771	92.792718915712	1
0	5773	92.840370497809	1
0	5778	92.887250066973	1
0	5780	92.934137882536	1
0	5783	92.973354011498	1
0	5794	93.111499919483	1
0	5800	93.225479460149	1
0	5802	93.252635039317	1
0	5810	93.411370762286	1
0	5812	93.430227234711	1
0	5816	93.500331785644	1
0	5819	93.559986777332	1
0	5824	93.595118905486	1
0	5826	93.631426789504	1
0	5838	93.848549377639	1
0	5847	94.031302004421	1
0	5849	94.074668489958	1
0	5853	94.101815486601	1
0	5858	94.23590565906	1
0	5863	94.305699413943	1
0	5869	94.386748728661	1
0	5881	94.672491263443	1
0	5885	94.694995512829	1
0	5891	94.795507077686	1
0	5893	94.875029297817	1
0	5902	95.076987748139	1
0	5906	95.150310282007	1
0	5922	95.432001455003	1
0	5924	95.47489263858	1
0	5931	95.613828489275	1
0	5933	95.616321298848	1
0	5938	95.736577033319	1
0	5940	95.752691291202	1
0	5958	96.096785695961	1
0	5961	96.110925007234	1
0	5982	96.629437949537	1
0	5987	96.75250983464	1
0	5993	96.812625299278	1
0	5997	96.936093286883	1
0	5999	96.943443924625	1
0	6004	97.03805409875	1
0	6007	97.072697431499	1
0	6016	97.184143254671	1
0	6018	97.200672555903	1
0	6022	97.260005612729	1
0	6030	97.314045882489	1
0	6037	97.433144027829	1
0	6039	97.447218543372	1
0	6045	97.494752510336	1
0	6052	97.587416370366	1
0	6054	97.597955983357	1
0	6056	97.646213504873	1
0	6073	97.968745113245	1
0	6091	98.194492792321	1
0	6093	98.202011973237	1
0	6108	98.545574312485	1
0	6110	98.54752324178	1
0	6117	98.62668415124	1
0	6141	99.015775160281	1
0	6143	99.047909190568	1
0	6147	99.063982194625	1
0	6151	99.153687496036	1
0	6158	99.18362279633	1
0	6173	99.41069380707	1
0	6175	99.434968350806	1
0	6181	99.487179481247	1
0	6185	99.57390868313	1
0	6190	99.654222360322	1
0	6210	100.026163191412	1
0	6214	100.057860929401	1
0	6222	100.089745034242	1
0	6224	100.150523510654	1
0	6244	100.501429865754	1
0	6246	100.55279842708	1
0	6250	100.555381231523	1
0	6255	100.583938123573	1
0	6270	100.802902795029	1
0	6274	100.873397727167	1
0	6283	100.996706599889	1
0	6285	101.033868175372	1
0	6289	101.066409847088	1
0	6293	101.113096281444	1
0	6304	101.338345568451	1
0	6311	101.412783394591	1
0	6313	101.415471456542	1
0	6323	101.554339183929	1
0	6330	101.652592018201	1
0	6336	101.693164652588	1
0	6338	101.733144179836	1
0	6352	101.991055492915	1
0	6371	102.332547983158	1
0	6380	102.530829241185	1
0	6382	102.549290828476	1
0	6384	102.554282388719	1
0	6398	102.786034994976	1
0	6400	102.815290055095	1
0	6403	102.855328208241	1
0	6412	102.914411730281	1
0	6421	103.134444662325	1
0	6423	103.145496249985	1
0	6429	103.217332833506	1
0	6432	103.260176936385	1
0	6436	103.331640355123	1
0	6443	103.466385237492	1
0	6447	103.515296078554	1
0	6458	103.629400411979	1
0	6463	103.704921593755	1
0	6468	103.802309452903	1
0	6480	104.091821214605	1
0	6487	104.215791022667	1
0	6500	104.439155007777	1
0	6502	104.462086724941	1
0	6507	104.575132444772	1
0	6512	104.616941610666	1
0	6517	104.718836928774	1
0	6523	104.831612972131	1
0	6528	104.911100255738	1
0	6541	105.122490937203	1
0	6543	105.154330238809	1
0	6549	105.232785908501	1
0	6551	105.248834319237	1
0	6555	105.282060381595	1
0	6562	105.476065202583	1
0	6564	105.479135379884	1
0	6572	105.579936733932	1
0	6581	105.70384038467	1
0	6583	105.739456962826	1
0	6585	105.740248497477	1
0	6590	105.801907806329	1
0	6593	105.848537508973	1
0	6595	105.851020829748	1
0	6599	105.926637454527	1
0	6605	106.008296723412	1
0	6614	106.263544372767	1
0	6618	106.308353169605	1
0	6620	106.317728708366	1
0	6630	106.387586808974	1
0	6632	106.439664695461	1
0	6634	106.456344271273	1
0	6636	106.45880563568	1
0	6641	106.514232483021	1
0	6643	106.556180415368	1
0	6655	106.792809441753	1
0	6659	106.890156696118	1
0	6661	106.891011497983	1
0	6663	106.923732536116	1
0	6680	107.270671919994	1
0	6684	107.294212506644	1
0	6690	107.411619520323	1
0	6692	107.423915777012	1
0	6694	107.434387004355	1
0	6698	107.520458475106	1
0	6700	107.554675944268	1
0	6706	107.673508860297	1
0	6711	107.75096053909	1
0	6720	107.86242163939	1
0	6728	107.991210663301	1
0	6739	108.288531497249	1
0	6741	108.337775634887	1
0	6743	108.338046322345	1
0	6746	108.363804808979	1
0	6751	108.467989255461	1
0	6759	108.528660496385	1
0	6765	108.620387676076	1
0	6776	108.97823784866	1
0	6782	109.067090719893	1
0	6793	109.246558031293	1
0	6804	109.575622914319	1
0	6816	109.82188734126	1
0	6818	109.823588903633	1
0	6826	109.933635756681	1
0	6832	110.052867334103	1
0	6837	110.110968199649	1
0	6842	110.278996439657	1
0	6850	110.394543912532	1
0	6853	110.465839560445	1
0	6857	110.570422089724	1
0	6866	110.611063376399	1
0	6868	110.614016557515	1
0	6873	110.770482212585	1
0	6884	111.02247108197	1
0	6886	111.032701260071	1
0	6891	111.110889702381	1
0	6894	111.169235719612	1
0	6915	111.641875239298	1
0	6919	111.715262236	1
0	6922	111.763567538426	1
0	6930	111.881970312061	1
0	6939	112.046305635582	1
0	6941	112.055834083869	1
0	6946	112.117639321583	1
0	6948	112.143485246455	1
0	6956	112.318830058283	1
0	6958	112.371644457355	1
0	6963	112.449105830991	1
0	6968	112.546735033288	1
0	6980	112.765006422217	1
0	6992	112.983008466933	1
0	7000	113.195123912618	1
0	7005	113.291573888794	1
0	7007	113.331368728259	1
0	7009	113.345693598638	1
0	7018	113.397516383448	1
0	7032	113.791662251911	1
0	7035	113.870330563457	1
0	7043	114.075735811843	1
0	7051	114.172940708691	1
0	7057	114.242801065386	1
0	7061	114.29050084048	1
0	7069	114.546052612146	1
0	7075	114.624169491145	1
0	7080	114.702122994028	1
0	7082	114.715010858632	1
0	7094	114.971804121502	1
0	7102	115.085965673854	1
0	7108	115.263101005786	1
0	7112	115.296945119068	1
0	7128	115.642046132004	1
0	7130	115.646438855417	1
0	7140	115.898740601552	1
0	7142	115.911081548703	1
0	7144	115.914751455731	1
0	7146	115.926004450369	1
0	7148	115.945214007984	1
0	7154	115.98326510284	1
0	7156	116.032552979677	1
0	7159	116.060860223262	1
0	7173	116.364813382275	1
0	7179	116.447545974635	1
0	7183	116.483217599902	1
0	7191	116.720041205202	1
0	7193	116.737532231212	1
0	7199	116.824307745506	1
0	7211	117.041731036219	1
0	7216	117.132845617026	1
0	7221	117.191975895583	1
0	7223	117.21916247944	1
0	7232	117.457624013763	1
0	7236	117.544585549847	1
0	7238	117.562048329495	1
0	7240	117.577815534778	1
0	7251	117.686025723226	1
0	7254	117.726917476151	1
0	7259	117.784946434949	1
0	7264	117.88317025339	1
0	7266	117.891127268899	1
0	7268	117.93596019956	1